<?xml version="1.0" ?>
<VTKFile type="UnstructuredGrid" version="0.1">
	<UnstructuredGrid>
		<Piece NumberOfPoints="81" NumberOfCells="128">
			<PointData Scalars="Boundary flag">
				<DataArray Name="Boundary flag" type="Float64" format="ascii">
					1.000000
					1.000000
					1.000000
					1.000000
					1.000000
					1.000000
					0.000000
					1.000000
					1.000000
					1.000000
					0.000000
					0.000000
					0.000000
					0.000000
					1.000000
					1.000000
					1.000000
					0.000000
					0.000000
					1.000000
					0.000000
					0.000000
					1.000000
					1.000000
					1.000000
					1.000000
					0.000000
					0.000000
					0.000000
					0.000000
					1.000000
					0.000000
					0.000000
					0.000000
					0.000000
					0.000000
					0.000000
					0.000000
					0.000000
					0.000000
					0.000000
					1.000000
					0.000000
					0.000000
					0.000000
					1.000000
					1.000000
					1.000000
					0.000000
					0.000000
					0.000000
					0.000000
					1.000000
					1.000000
					0.000000
					0.000000
					1.000000
					0.000000
					0.000000
					0.000000
					0.000000
					1.000000
					0.000000
					0.000000
					0.000000
					0.000000
					0.000000
					0.000000
					0.000000
					0.000000
					0.000000
					0.000000
					1.000000
					1.000000
					0.000000
					1.000000
					0.000000
					0.000000
					1.000000
					1.000000
					1.000000
				</DataArray>
				<DataArray Name="Dirichlet BC" type="Float64" format="ascii">
					0.000000
					0.540302
					0.291927
					0.540302
					0.000000
					0.474160
					0.000000
					0.474160
					0.000000
					0.000000
					0.000000
					0.000000
					0.000000
					0.000000
					0.000000
					0.523506
					0.395333
					0.000000
					0.000000
					0.000000
					0.000000
					0.000000
					0.395333
					0.523506
					0.000000
					0.000000
					0.000000
					0.000000
					0.000000
					0.000000
					0.000000
					0.000000
					0.000000
					0.000000
					0.000000
					0.000000
					0.000000
					0.000000
					0.000000
					0.000000
					0.000000
					0.000000
					0.000000
					0.000000
					0.000000
					0.000000
					0.536087
					0.502755
					0.000000
					0.000000
					0.000000
					0.000000
					0.438165
					0.346332
					0.000000
					0.000000
					0.000000
					0.000000
					0.000000
					0.000000
					0.000000
					0.000000
					0.000000
					0.000000
					0.000000
					0.000000
					0.000000
					0.000000
					0.000000
					0.000000
					0.000000
					0.000000
					0.346332
					0.438165
					0.000000
					0.000000
					0.000000
					0.000000
					0.502755
					0.536087
					0.000000
				</DataArray>
			</PointData>
			<CellData />
			<Points>
				<DataArray type="Float64" Name="Array" NumberOfComponents="3" format="ascii">
					0.000000 0.000000 0.000000 
					1.000000 0.000000 0.000000 
					1.000000 1.000000 0.000000 
					0.000000 1.000000 0.000000 
					0.500000 0.000000 0.000000 
					1.000000 0.500000 0.000000 
					0.500000 0.500000 0.000000 
					0.500000 1.000000 0.000000 
					0.000000 0.500000 0.000000 
					0.250000 0.000000 0.000000 
					0.500000 0.250000 0.000000 
					0.250000 0.250000 0.000000 
					0.750000 0.250000 0.000000 
					0.750000 0.500000 0.000000 
					0.750000 0.000000 0.000000 
					1.000000 0.250000 0.000000 
					1.000000 0.750000 0.000000 
					0.750000 0.750000 0.000000 
					0.250000 0.500000 0.000000 
					0.000000 0.250000 0.000000 
					0.500000 0.750000 0.000000 
					0.250000 0.750000 0.000000 
					0.750000 1.000000 0.000000 
					0.250000 1.000000 0.000000 
					0.000000 0.750000 0.000000 
					0.125000 0.000000 0.000000 
					0.250000 0.125000 0.000000 
					0.125000 0.125000 0.000000 
					0.375000 0.125000 0.000000 
					0.375000 0.250000 0.000000 
					0.375000 0.000000 0.000000 
					0.500000 0.125000 0.000000 
					0.500000 0.375000 0.000000 
					0.375000 0.375000 0.000000 
					0.625000 0.125000 0.000000 
					0.625000 0.250000 0.000000 
					0.750000 0.375000 0.000000 
					0.625000 0.375000 0.000000 
					0.875000 0.375000 0.000000 
					0.875000 0.500000 0.000000 
					0.625000 0.500000 0.000000 
					0.625000 0.000000 0.000000 
					0.750000 0.125000 0.000000 
					0.875000 0.125000 0.000000 
					0.875000 0.250000 0.000000 
					0.875000 0.000000 0.000000 
					1.000000 0.125000 0.000000 
					1.000000 0.375000 0.000000 
					0.750000 0.625000 0.000000 
					0.625000 0.625000 0.000000 
					0.875000 0.625000 0.000000 
					0.875000 0.750000 0.000000 
					1.000000 0.625000 0.000000 
					1.000000 0.875000 0.000000 
					0.875000 0.875000 0.000000 
					0.125000 0.250000 0.000000 
					0.000000 0.125000 0.000000 
					0.250000 0.375000 0.000000 
					0.125000 0.375000 0.000000 
					0.375000 0.500000 0.000000 
					0.125000 0.500000 0.000000 
					0.000000 0.375000 0.000000 
					0.500000 0.625000 0.000000 
					0.375000 0.625000 0.000000 
					0.375000 0.750000 0.000000 
					0.250000 0.625000 0.000000 
					0.500000 0.875000 0.000000 
					0.375000 0.875000 0.000000 
					0.125000 0.625000 0.000000 
					0.625000 0.750000 0.000000 
					0.750000 0.875000 0.000000 
					0.625000 0.875000 0.000000 
					0.875000 1.000000 0.000000 
					0.625000 1.000000 0.000000 
					0.125000 0.750000 0.000000 
					0.000000 0.625000 0.000000 
					0.250000 0.875000 0.000000 
					0.125000 0.875000 0.000000 
					0.375000 1.000000 0.000000 
					0.125000 1.000000 0.000000 
					0.000000 0.875000 0.000000 
				</DataArray>
			</Points>
			<Cells>
				<DataArray type="Int64" Name="connectivity" format="ascii">
					0 25 27 
					25 26 27 
					25 9 26 
					27 26 11 
					9 28 26 
					28 29 26 
					28 10 29 
					26 29 11 
					9 30 28 
					30 31 28 
					30 4 31 
					28 31 10 
					11 29 33 
					29 32 33 
					29 10 32 
					33 32 6 
					4 34 31 
					34 35 31 
					34 12 35 
					31 35 10 
					12 36 35 
					36 37 35 
					36 13 37 
					35 37 10 
					12 38 36 
					38 39 36 
					38 5 39 
					36 39 13 
					10 37 32 
					37 40 32 
					37 13 40 
					32 40 6 
					4 41 34 
					41 42 34 
					41 14 42 
					34 42 12 
					14 43 42 
					43 44 42 
					43 15 44 
					42 44 12 
					14 45 43 
					45 46 43 
					45 1 46 
					43 46 15 
					12 44 38 
					44 47 38 
					44 15 47 
					38 47 5 
					6 40 49 
					40 48 49 
					40 13 48 
					49 48 17 
					13 50 48 
					50 51 48 
					50 16 51 
					48 51 17 
					13 39 50 
					39 52 50 
					39 5 52 
					50 52 16 
					17 51 54 
					51 53 54 
					51 16 53 
					54 53 2 
					0 27 56 
					27 55 56 
					27 11 55 
					56 55 19 
					11 57 55 
					57 58 55 
					57 18 58 
					55 58 19 
					11 33 57 
					33 59 57 
					33 6 59 
					57 59 18 
					19 58 61 
					58 60 61 
					58 18 60 
					61 60 8 
					6 62 59 
					62 63 59 
					62 20 63 
					59 63 18 
					20 64 63 
					64 65 63 
					64 21 65 
					63 65 18 
					20 66 64 
					66 67 64 
					66 7 67 
					64 67 21 
					18 65 60 
					65 68 60 
					65 21 68 
					60 68 8 
					6 49 62 
					49 69 62 
					49 17 69 
					62 69 20 
					17 70 69 
					70 71 69 
					70 22 71 
					69 71 20 
					17 54 70 
					54 72 70 
					54 2 72 
					70 72 22 
					20 71 66 
					71 73 66 
					71 22 73 
					66 73 7 
					8 68 75 
					68 74 75 
					68 21 74 
					75 74 24 
					21 76 74 
					76 77 74 
					76 23 77 
					74 77 24 
					21 67 76 
					67 78 76 
					67 7 78 
					76 78 23 
					24 77 80 
					77 79 80 
					77 23 79 
					80 79 3 
				</DataArray>
				<DataArray type="Int64" Name="offsets" format="ascii">
					3 
					6 
					9 
					12 
					15 
					18 
					21 
					24 
					27 
					30 
					33 
					36 
					39 
					42 
					45 
					48 
					51 
					54 
					57 
					60 
					63 
					66 
					69 
					72 
					75 
					78 
					81 
					84 
					87 
					90 
					93 
					96 
					99 
					102 
					105 
					108 
					111 
					114 
					117 
					120 
					123 
					126 
					129 
					132 
					135 
					138 
					141 
					144 
					147 
					150 
					153 
					156 
					159 
					162 
					165 
					168 
					171 
					174 
					177 
					180 
					183 
					186 
					189 
					192 
					195 
					198 
					201 
					204 
					207 
					210 
					213 
					216 
					219 
					222 
					225 
					228 
					231 
					234 
					237 
					240 
					243 
					246 
					249 
					252 
					255 
					258 
					261 
					264 
					267 
					270 
					273 
					276 
					279 
					282 
					285 
					288 
					291 
					294 
					297 
					300 
					303 
					306 
					309 
					312 
					315 
					318 
					321 
					324 
					327 
					330 
					333 
					336 
					339 
					342 
					345 
					348 
					351 
					354 
					357 
					360 
					363 
					366 
					369 
					372 
					375 
					378 
					381 
					384 
				</DataArray>
				<DataArray type="UInt8" Name="types" format="ascii">
					5 
					5 
					5 
					5 
					5 
					5 
					5 
					5 
					5 
					5 
					5 
					5 
					5 
					5 
					5 
					5 
					5 
					5 
					5 
					5 
					5 
					5 
					5 
					5 
					5 
					5 
					5 
					5 
					5 
					5 
					5 
					5 
					5 
					5 
					5 
					5 
					5 
					5 
					5 
					5 
					5 
					5 
					5 
					5 
					5 
					5 
					5 
					5 
					5 
					5 
					5 
					5 
					5 
					5 
					5 
					5 
					5 
					5 
					5 
					5 
					5 
					5 
					5 
					5 
					5 
					5 
					5 
					5 
					5 
					5 
					5 
					5 
					5 
					5 
					5 
					5 
					5 
					5 
					5 
					5 
					5 
					5 
					5 
					5 
					5 
					5 
					5 
					5 
					5 
					5 
					5 
					5 
					5 
					5 
					5 
					5 
					5 
					5 
					5 
					5 
					5 
					5 
					5 
					5 
					5 
					5 
					5 
					5 
					5 
					5 
					5 
					5 
					5 
					5 
					5 
					5 
					5 
					5 
					5 
					5 
					5 
					5 
					5 
					5 
					5 
					5 
					5 
					5 
				</DataArray>
			</Cells>
		</Piece>
	</UnstructuredGrid>
</VTKFile>
