<?xml version="1.0" ?>
<VTKFile type="UnstructuredGrid" version="0.1">
	<UnstructuredGrid>
		<Piece NumberOfPoints="289" NumberOfCells="512">
			<PointData Scalars="Boundary flag">
				<DataArray Name="Boundary flag" type="Float64" format="ascii">
					1.000000
					1.000000
					1.000000
					1.000000
					1.000000
					1.000000
					0.000000
					1.000000
					1.000000
					1.000000
					0.000000
					0.000000
					0.000000
					0.000000
					1.000000
					1.000000
					1.000000
					0.000000
					0.000000
					1.000000
					0.000000
					0.000000
					1.000000
					1.000000
					1.000000
					1.000000
					0.000000
					0.000000
					0.000000
					0.000000
					1.000000
					0.000000
					0.000000
					0.000000
					0.000000
					0.000000
					0.000000
					0.000000
					0.000000
					0.000000
					0.000000
					1.000000
					0.000000
					0.000000
					0.000000
					1.000000
					1.000000
					1.000000
					0.000000
					0.000000
					0.000000
					0.000000
					1.000000
					1.000000
					0.000000
					0.000000
					1.000000
					0.000000
					0.000000
					0.000000
					0.000000
					1.000000
					0.000000
					0.000000
					0.000000
					0.000000
					0.000000
					0.000000
					0.000000
					0.000000
					0.000000
					0.000000
					1.000000
					1.000000
					0.000000
					1.000000
					0.000000
					0.000000
					1.000000
					1.000000
					1.000000
					1.000000
					0.000000
					0.000000
					0.000000
					0.000000
					1.000000
					0.000000
					0.000000
					0.000000
					0.000000
					0.000000
					0.000000
					0.000000
					0.000000
					0.000000
					0.000000
					1.000000
					0.000000
					0.000000
					0.000000
					1.000000
					0.000000
					0.000000
					0.000000
					0.000000
					0.000000
					0.000000
					0.000000
					0.000000
					0.000000
					0.000000
					0.000000
					0.000000
					0.000000
					0.000000
					0.000000
					0.000000
					0.000000
					0.000000
					0.000000
					0.000000
					0.000000
					0.000000
					0.000000
					0.000000
					0.000000
					0.000000
					0.000000
					0.000000
					0.000000
					0.000000
					0.000000
					0.000000
					0.000000
					0.000000
					0.000000
					1.000000
					0.000000
					0.000000
					0.000000
					1.000000
					0.000000
					0.000000
					0.000000
					0.000000
					0.000000
					0.000000
					0.000000
					0.000000
					0.000000
					1.000000
					0.000000
					0.000000
					0.000000
					1.000000
					1.000000
					1.000000
					0.000000
					0.000000
					0.000000
					1.000000
					1.000000
					0.000000
					0.000000
					0.000000
					0.000000
					0.000000
					0.000000
					0.000000
					0.000000
					0.000000
					0.000000
					0.000000
					0.000000
					0.000000
					0.000000
					0.000000
					0.000000
					0.000000
					1.000000
					1.000000
					0.000000
					0.000000
					0.000000
					0.000000
					1.000000
					1.000000
					0.000000
					0.000000
					1.000000
					0.000000
					0.000000
					0.000000
					0.000000
					1.000000
					0.000000
					0.000000
					0.000000
					0.000000
					0.000000
					0.000000
					0.000000
					0.000000
					0.000000
					0.000000
					0.000000
					0.000000
					0.000000
					1.000000
					0.000000
					0.000000
					0.000000
					0.000000
					1.000000
					0.000000
					0.000000
					0.000000
					0.000000
					0.000000
					0.000000
					0.000000
					0.000000
					0.000000
					0.000000
					0.000000
					0.000000
					0.000000
					0.000000
					0.000000
					0.000000
					0.000000
					0.000000
					0.000000
					0.000000
					0.000000
					0.000000
					0.000000
					0.000000
					0.000000
					0.000000
					0.000000
					0.000000
					0.000000
					0.000000
					0.000000
					0.000000
					0.000000
					0.000000
					0.000000
					0.000000
					0.000000
					0.000000
					0.000000
					0.000000
					0.000000
					1.000000
					1.000000
					0.000000
					0.000000
					0.000000
					1.000000
					1.000000
					0.000000
					1.000000
					0.000000
					0.000000
					0.000000
					0.000000
					1.000000
					0.000000
					0.000000
					0.000000
					0.000000
					0.000000
					0.000000
					0.000000
					0.000000
					0.000000
					0.000000
					1.000000
					1.000000
					0.000000
					1.000000
					0.000000
					0.000000
					1.000000
					1.000000
					1.000000
				</DataArray>
				<DataArray Name="Dirichlet BC" type="Float64" format="ascii">
					0.000000
					0.540302
					0.291927
					0.540302
					0.000000
					0.474160
					0.000000
					0.474160
					0.000000
					0.000000
					0.000000
					0.000000
					0.000000
					0.000000
					0.000000
					0.523506
					0.395333
					0.000000
					0.000000
					0.000000
					0.000000
					0.000000
					0.395333
					0.523506
					0.000000
					0.000000
					0.000000
					0.000000
					0.000000
					0.000000
					0.000000
					0.000000
					0.000000
					0.000000
					0.000000
					0.000000
					0.000000
					0.000000
					0.000000
					0.000000
					0.000000
					0.000000
					0.000000
					0.000000
					0.000000
					0.000000
					0.536087
					0.502755
					0.000000
					0.000000
					0.000000
					0.000000
					0.438165
					0.346332
					0.000000
					0.000000
					0.000000
					0.000000
					0.000000
					0.000000
					0.000000
					0.000000
					0.000000
					0.000000
					0.000000
					0.000000
					0.000000
					0.000000
					0.000000
					0.000000
					0.000000
					0.000000
					0.346332
					0.438165
					0.000000
					0.000000
					0.000000
					0.000000
					0.502755
					0.536087
					0.000000
					0.000000
					0.000000
					0.000000
					0.000000
					0.000000
					0.000000
					0.000000
					0.000000
					0.000000
					0.000000
					0.000000
					0.000000
					0.000000
					0.000000
					0.000000
					0.000000
					0.000000
					0.000000
					0.000000
					0.000000
					0.000000
					0.000000
					0.000000
					0.000000
					0.000000
					0.000000
					0.000000
					0.000000
					0.000000
					0.000000
					0.000000
					0.000000
					0.000000
					0.000000
					0.000000
					0.000000
					0.000000
					0.000000
					0.000000
					0.000000
					0.000000
					0.000000
					0.000000
					0.000000
					0.000000
					0.000000
					0.000000
					0.000000
					0.000000
					0.000000
					0.000000
					0.000000
					0.000000
					0.000000
					0.000000
					0.000000
					0.000000
					0.000000
					0.000000
					0.000000
					0.000000
					0.000000
					0.000000
					0.000000
					0.000000
					0.000000
					0.000000
					0.000000
					0.000000
					0.000000
					0.000000
					0.000000
					0.000000
					0.000000
					0.000000
					0.539247
					0.530833
					0.000000
					0.000000
					0.000000
					0.514134
					0.489413
					0.000000
					0.000000
					0.000000
					0.000000
					0.000000
					0.000000
					0.000000
					0.000000
					0.000000
					0.000000
					0.000000
					0.000000
					0.000000
					0.000000
					0.000000
					0.000000
					0.000000
					0.457055
					0.417565
					0.000000
					0.000000
					0.000000
					0.000000
					0.371558
					0.319754
					0.000000
					0.000000
					0.000000
					0.000000
					0.000000
					0.000000
					0.000000
					0.000000
					0.000000
					0.000000
					0.000000
					0.000000
					0.000000
					0.000000
					0.000000
					0.000000
					0.000000
					0.000000
					0.000000
					0.000000
					0.000000
					0.000000
					0.000000
					0.000000
					0.000000
					0.000000
					0.000000
					0.000000
					0.000000
					0.000000
					0.000000
					0.000000
					0.000000
					0.000000
					0.000000
					0.000000
					0.000000
					0.000000
					0.000000
					0.000000
					0.000000
					0.000000
					0.000000
					0.000000
					0.000000
					0.000000
					0.000000
					0.000000
					0.000000
					0.000000
					0.000000
					0.000000
					0.000000
					0.000000
					0.000000
					0.000000
					0.000000
					0.000000
					0.000000
					0.000000
					0.000000
					0.000000
					0.000000
					0.000000
					0.000000
					0.000000
					0.000000
					0.000000
					0.319754
					0.371558
					0.000000
					0.000000
					0.000000
					0.417565
					0.457055
					0.000000
					0.000000
					0.000000
					0.000000
					0.000000
					0.000000
					0.000000
					0.000000
					0.000000
					0.000000
					0.000000
					0.000000
					0.000000
					0.000000
					0.000000
					0.000000
					0.000000
					0.489413
					0.514134
					0.000000
					0.000000
					0.000000
					0.000000
					0.530833
					0.539247
					0.000000
				</DataArray>
			</PointData>
			<CellData />
			<Points>
				<DataArray type="Float64" Name="Array" NumberOfComponents="3" format="ascii">
					0.000000 0.000000 0.000000 
					1.000000 0.000000 0.000000 
					1.000000 1.000000 0.000000 
					0.000000 1.000000 0.000000 
					0.500000 0.000000 0.000000 
					1.000000 0.500000 0.000000 
					0.500000 0.500000 0.000000 
					0.500000 1.000000 0.000000 
					0.000000 0.500000 0.000000 
					0.250000 0.000000 0.000000 
					0.500000 0.250000 0.000000 
					0.250000 0.250000 0.000000 
					0.750000 0.250000 0.000000 
					0.750000 0.500000 0.000000 
					0.750000 0.000000 0.000000 
					1.000000 0.250000 0.000000 
					1.000000 0.750000 0.000000 
					0.750000 0.750000 0.000000 
					0.250000 0.500000 0.000000 
					0.000000 0.250000 0.000000 
					0.500000 0.750000 0.000000 
					0.250000 0.750000 0.000000 
					0.750000 1.000000 0.000000 
					0.250000 1.000000 0.000000 
					0.000000 0.750000 0.000000 
					0.125000 0.000000 0.000000 
					0.250000 0.125000 0.000000 
					0.125000 0.125000 0.000000 
					0.375000 0.125000 0.000000 
					0.375000 0.250000 0.000000 
					0.375000 0.000000 0.000000 
					0.500000 0.125000 0.000000 
					0.500000 0.375000 0.000000 
					0.375000 0.375000 0.000000 
					0.625000 0.125000 0.000000 
					0.625000 0.250000 0.000000 
					0.750000 0.375000 0.000000 
					0.625000 0.375000 0.000000 
					0.875000 0.375000 0.000000 
					0.875000 0.500000 0.000000 
					0.625000 0.500000 0.000000 
					0.625000 0.000000 0.000000 
					0.750000 0.125000 0.000000 
					0.875000 0.125000 0.000000 
					0.875000 0.250000 0.000000 
					0.875000 0.000000 0.000000 
					1.000000 0.125000 0.000000 
					1.000000 0.375000 0.000000 
					0.750000 0.625000 0.000000 
					0.625000 0.625000 0.000000 
					0.875000 0.625000 0.000000 
					0.875000 0.750000 0.000000 
					1.000000 0.625000 0.000000 
					1.000000 0.875000 0.000000 
					0.875000 0.875000 0.000000 
					0.125000 0.250000 0.000000 
					0.000000 0.125000 0.000000 
					0.250000 0.375000 0.000000 
					0.125000 0.375000 0.000000 
					0.375000 0.500000 0.000000 
					0.125000 0.500000 0.000000 
					0.000000 0.375000 0.000000 
					0.500000 0.625000 0.000000 
					0.375000 0.625000 0.000000 
					0.375000 0.750000 0.000000 
					0.250000 0.625000 0.000000 
					0.500000 0.875000 0.000000 
					0.375000 0.875000 0.000000 
					0.125000 0.625000 0.000000 
					0.625000 0.750000 0.000000 
					0.750000 0.875000 0.000000 
					0.625000 0.875000 0.000000 
					0.875000 1.000000 0.000000 
					0.625000 1.000000 0.000000 
					0.125000 0.750000 0.000000 
					0.000000 0.625000 0.000000 
					0.250000 0.875000 0.000000 
					0.125000 0.875000 0.000000 
					0.375000 1.000000 0.000000 
					0.125000 1.000000 0.000000 
					0.000000 0.875000 0.000000 
					0.062500 0.000000 0.000000 
					0.125000 0.062500 0.000000 
					0.062500 0.062500 0.000000 
					0.187500 0.062500 0.000000 
					0.187500 0.125000 0.000000 
					0.187500 0.000000 0.000000 
					0.250000 0.062500 0.000000 
					0.250000 0.187500 0.000000 
					0.187500 0.187500 0.000000 
					0.312500 0.062500 0.000000 
					0.312500 0.125000 0.000000 
					0.375000 0.187500 0.000000 
					0.312500 0.187500 0.000000 
					0.437500 0.187500 0.000000 
					0.437500 0.250000 0.000000 
					0.312500 0.250000 0.000000 
					0.312500 0.000000 0.000000 
					0.375000 0.062500 0.000000 
					0.437500 0.062500 0.000000 
					0.437500 0.125000 0.000000 
					0.437500 0.000000 0.000000 
					0.500000 0.062500 0.000000 
					0.500000 0.187500 0.000000 
					0.375000 0.312500 0.000000 
					0.312500 0.312500 0.000000 
					0.437500 0.312500 0.000000 
					0.437500 0.375000 0.000000 
					0.500000 0.312500 0.000000 
					0.500000 0.437500 0.000000 
					0.437500 0.437500 0.000000 
					0.562500 0.062500 0.000000 
					0.562500 0.125000 0.000000 
					0.625000 0.187500 0.000000 
					0.562500 0.187500 0.000000 
					0.687500 0.187500 0.000000 
					0.687500 0.250000 0.000000 
					0.562500 0.250000 0.000000 
					0.750000 0.312500 0.000000 
					0.687500 0.312500 0.000000 
					0.687500 0.375000 0.000000 
					0.625000 0.312500 0.000000 
					0.750000 0.437500 0.000000 
					0.687500 0.437500 0.000000 
					0.562500 0.312500 0.000000 
					0.812500 0.312500 0.000000 
					0.812500 0.375000 0.000000 
					0.875000 0.437500 0.000000 
					0.812500 0.437500 0.000000 
					0.937500 0.437500 0.000000 
					0.937500 0.500000 0.000000 
					0.812500 0.500000 0.000000 
					0.562500 0.375000 0.000000 
					0.625000 0.437500 0.000000 
					0.562500 0.437500 0.000000 
					0.687500 0.500000 0.000000 
					0.562500 0.500000 0.000000 
					0.562500 0.000000 0.000000 
					0.625000 0.062500 0.000000 
					0.687500 0.062500 0.000000 
					0.687500 0.125000 0.000000 
					0.687500 0.000000 0.000000 
					0.750000 0.062500 0.000000 
					0.750000 0.187500 0.000000 
					0.812500 0.062500 0.000000 
					0.812500 0.125000 0.000000 
					0.875000 0.187500 0.000000 
					0.812500 0.187500 0.000000 
					0.937500 0.187500 0.000000 
					0.937500 0.250000 0.000000 
					0.812500 0.250000 0.000000 
					0.812500 0.000000 0.000000 
					0.875000 0.062500 0.000000 
					0.937500 0.062500 0.000000 
					0.937500 0.125000 0.000000 
					0.937500 0.000000 0.000000 
					1.000000 0.062500 0.000000 
					1.000000 0.187500 0.000000 
					0.875000 0.312500 0.000000 
					0.937500 0.312500 0.000000 
					0.937500 0.375000 0.000000 
					1.000000 0.312500 0.000000 
					1.000000 0.437500 0.000000 
					0.625000 0.562500 0.000000 
					0.562500 0.562500 0.000000 
					0.687500 0.562500 0.000000 
					0.687500 0.625000 0.000000 
					0.750000 0.562500 0.000000 
					0.750000 0.687500 0.000000 
					0.687500 0.687500 0.000000 
					0.812500 0.562500 0.000000 
					0.812500 0.625000 0.000000 
					0.875000 0.687500 0.000000 
					0.812500 0.687500 0.000000 
					0.937500 0.687500 0.000000 
					0.937500 0.750000 0.000000 
					0.812500 0.750000 0.000000 
					0.875000 0.562500 0.000000 
					0.937500 0.562500 0.000000 
					0.937500 0.625000 0.000000 
					1.000000 0.562500 0.000000 
					1.000000 0.687500 0.000000 
					0.875000 0.812500 0.000000 
					0.812500 0.812500 0.000000 
					0.937500 0.812500 0.000000 
					0.937500 0.875000 0.000000 
					1.000000 0.812500 0.000000 
					1.000000 0.937500 0.000000 
					0.937500 0.937500 0.000000 
					0.062500 0.125000 0.000000 
					0.000000 0.062500 0.000000 
					0.125000 0.187500 0.000000 
					0.062500 0.187500 0.000000 
					0.187500 0.250000 0.000000 
					0.062500 0.250000 0.000000 
					0.000000 0.187500 0.000000 
					0.250000 0.312500 0.000000 
					0.187500 0.312500 0.000000 
					0.187500 0.375000 0.000000 
					0.125000 0.312500 0.000000 
					0.250000 0.437500 0.000000 
					0.187500 0.437500 0.000000 
					0.062500 0.312500 0.000000 
					0.312500 0.375000 0.000000 
					0.375000 0.437500 0.000000 
					0.312500 0.437500 0.000000 
					0.437500 0.500000 0.000000 
					0.312500 0.500000 0.000000 
					0.062500 0.375000 0.000000 
					0.000000 0.312500 0.000000 
					0.125000 0.437500 0.000000 
					0.062500 0.437500 0.000000 
					0.187500 0.500000 0.000000 
					0.062500 0.500000 0.000000 
					0.000000 0.437500 0.000000 
					0.500000 0.562500 0.000000 
					0.437500 0.562500 0.000000 
					0.437500 0.625000 0.000000 
					0.375000 0.562500 0.000000 
					0.500000 0.687500 0.000000 
					0.437500 0.687500 0.000000 
					0.312500 0.562500 0.000000 
					0.437500 0.750000 0.000000 
					0.375000 0.687500 0.000000 
					0.312500 0.687500 0.000000 
					0.312500 0.625000 0.000000 
					0.312500 0.750000 0.000000 
					0.250000 0.687500 0.000000 
					0.250000 0.562500 0.000000 
					0.500000 0.812500 0.000000 
					0.437500 0.812500 0.000000 
					0.437500 0.875000 0.000000 
					0.375000 0.812500 0.000000 
					0.500000 0.937500 0.000000 
					0.437500 0.937500 0.000000 
					0.312500 0.812500 0.000000 
					0.187500 0.562500 0.000000 
					0.187500 0.625000 0.000000 
					0.125000 0.562500 0.000000 
					0.187500 0.687500 0.000000 
					0.062500 0.562500 0.000000 
					0.562500 0.625000 0.000000 
					0.625000 0.687500 0.000000 
					0.562500 0.687500 0.000000 
					0.687500 0.750000 0.000000 
					0.562500 0.750000 0.000000 
					0.750000 0.812500 0.000000 
					0.687500 0.812500 0.000000 
					0.687500 0.875000 0.000000 
					0.625000 0.812500 0.000000 
					0.750000 0.937500 0.000000 
					0.687500 0.937500 0.000000 
					0.562500 0.812500 0.000000 
					0.812500 0.875000 0.000000 
					0.875000 0.937500 0.000000 
					0.812500 0.937500 0.000000 
					0.937500 1.000000 0.000000 
					0.812500 1.000000 0.000000 
					0.562500 0.875000 0.000000 
					0.625000 0.937500 0.000000 
					0.562500 0.937500 0.000000 
					0.687500 1.000000 0.000000 
					0.562500 1.000000 0.000000 
					0.062500 0.625000 0.000000 
					0.000000 0.562500 0.000000 
					0.125000 0.687500 0.000000 
					0.062500 0.687500 0.000000 
					0.187500 0.750000 0.000000 
					0.062500 0.750000 0.000000 
					0.000000 0.687500 0.000000 
					0.250000 0.812500 0.000000 
					0.187500 0.812500 0.000000 
					0.187500 0.875000 0.000000 
					0.125000 0.812500 0.000000 
					0.250000 0.937500 0.000000 
					0.187500 0.937500 0.000000 
					0.062500 0.812500 0.000000 
					0.312500 0.875000 0.000000 
					0.375000 0.937500 0.000000 
					0.312500 0.937500 0.000000 
					0.437500 1.000000 0.000000 
					0.312500 1.000000 0.000000 
					0.062500 0.875000 0.000000 
					0.000000 0.812500 0.000000 
					0.125000 0.937500 0.000000 
					0.062500 0.937500 0.000000 
					0.187500 1.000000 0.000000 
					0.062500 1.000000 0.000000 
					0.000000 0.937500 0.000000 
				</DataArray>
			</Points>
			<Cells>
				<DataArray type="Int64" Name="connectivity" format="ascii">
					0 81 83 
					81 82 83 
					81 25 82 
					83 82 27 
					25 84 82 
					84 85 82 
					84 26 85 
					82 85 27 
					25 86 84 
					86 87 84 
					86 9 87 
					84 87 26 
					27 85 89 
					85 88 89 
					85 26 88 
					89 88 11 
					9 90 87 
					90 91 87 
					90 28 91 
					87 91 26 
					28 92 91 
					92 93 91 
					92 29 93 
					91 93 26 
					28 94 92 
					94 95 92 
					94 10 95 
					92 95 29 
					26 93 88 
					93 96 88 
					93 29 96 
					88 96 11 
					9 97 90 
					97 98 90 
					97 30 98 
					90 98 28 
					30 99 98 
					99 100 98 
					99 31 100 
					98 100 28 
					30 101 99 
					101 102 99 
					101 4 102 
					99 102 31 
					28 100 94 
					100 103 94 
					100 31 103 
					94 103 10 
					11 96 105 
					96 104 105 
					96 29 104 
					105 104 33 
					29 106 104 
					106 107 104 
					106 32 107 
					104 107 33 
					29 95 106 
					95 108 106 
					95 10 108 
					106 108 32 
					33 107 110 
					107 109 110 
					107 32 109 
					110 109 6 
					4 111 102 
					111 112 102 
					111 34 112 
					102 112 31 
					34 113 112 
					113 114 112 
					113 35 114 
					112 114 31 
					34 115 113 
					115 116 113 
					115 12 116 
					113 116 35 
					31 114 103 
					114 117 103 
					114 35 117 
					103 117 10 
					12 118 116 
					118 119 116 
					118 36 119 
					116 119 35 
					36 120 119 
					120 121 119 
					120 37 121 
					119 121 35 
					36 122 120 
					122 123 120 
					122 13 123 
					120 123 37 
					35 121 117 
					121 124 117 
					121 37 124 
					117 124 10 
					12 125 118 
					125 126 118 
					125 38 126 
					118 126 36 
					38 127 126 
					127 128 126 
					127 39 128 
					126 128 36 
					38 129 127 
					129 130 127 
					129 5 130 
					127 130 39 
					36 128 122 
					128 131 122 
					128 39 131 
					122 131 13 
					10 124 108 
					124 132 108 
					124 37 132 
					108 132 32 
					37 133 132 
					133 134 132 
					133 40 134 
					132 134 32 
					37 123 133 
					123 135 133 
					123 13 135 
					133 135 40 
					32 134 109 
					134 136 109 
					134 40 136 
					109 136 6 
					4 137 111 
					137 138 111 
					137 41 138 
					111 138 34 
					41 139 138 
					139 140 138 
					139 42 140 
					138 140 34 
					41 141 139 
					141 142 139 
					141 14 142 
					139 142 42 
					34 140 115 
					140 143 115 
					140 42 143 
					115 143 12 
					14 144 142 
					144 145 142 
					144 43 145 
					142 145 42 
					43 146 145 
					146 147 145 
					146 44 147 
					145 147 42 
					43 148 146 
					148 149 146 
					148 15 149 
					146 149 44 
					42 147 143 
					147 150 143 
					147 44 150 
					143 150 12 
					14 151 144 
					151 152 144 
					151 45 152 
					144 152 43 
					45 153 152 
					153 154 152 
					153 46 154 
					152 154 43 
					45 155 153 
					155 156 153 
					155 1 156 
					153 156 46 
					43 154 148 
					154 157 148 
					154 46 157 
					148 157 15 
					12 150 125 
					150 158 125 
					150 44 158 
					125 158 38 
					44 159 158 
					159 160 158 
					159 47 160 
					158 160 38 
					44 149 159 
					149 161 159 
					149 15 161 
					159 161 47 
					38 160 129 
					160 162 129 
					160 47 162 
					129 162 5 
					6 136 164 
					136 163 164 
					136 40 163 
					164 163 49 
					40 165 163 
					165 166 163 
					165 48 166 
					163 166 49 
					40 135 165 
					135 167 165 
					135 13 167 
					165 167 48 
					49 166 169 
					166 168 169 
					166 48 168 
					169 168 17 
					13 170 167 
					170 171 167 
					170 50 171 
					167 171 48 
					50 172 171 
					172 173 171 
					172 51 173 
					171 173 48 
					50 174 172 
					174 175 172 
					174 16 175 
					172 175 51 
					48 173 168 
					173 176 168 
					173 51 176 
					168 176 17 
					13 131 170 
					131 177 170 
					131 39 177 
					170 177 50 
					39 178 177 
					178 179 177 
					178 52 179 
					177 179 50 
					39 130 178 
					130 180 178 
					130 5 180 
					178 180 52 
					50 179 174 
					179 181 174 
					179 52 181 
					174 181 16 
					17 176 183 
					176 182 183 
					176 51 182 
					183 182 54 
					51 184 182 
					184 185 182 
					184 53 185 
					182 185 54 
					51 175 184 
					175 186 184 
					175 16 186 
					184 186 53 
					54 185 188 
					185 187 188 
					185 53 187 
					188 187 2 
					0 83 190 
					83 189 190 
					83 27 189 
					190 189 56 
					27 191 189 
					191 192 189 
					191 55 192 
					189 192 56 
					27 89 191 
					89 193 191 
					89 11 193 
					191 193 55 
					56 192 195 
					192 194 195 
					192 55 194 
					195 194 19 
					11 196 193 
					196 197 193 
					196 57 197 
					193 197 55 
					57 198 197 
					198 199 197 
					198 58 199 
					197 199 55 
					57 200 198 
					200 201 198 
					200 18 201 
					198 201 58 
					55 199 194 
					199 202 194 
					199 58 202 
					194 202 19 
					11 105 196 
					105 203 196 
					105 33 203 
					196 203 57 
					33 204 203 
					204 205 203 
					204 59 205 
					203 205 57 
					33 110 204 
					110 206 204 
					110 6 206 
					204 206 59 
					57 205 200 
					205 207 200 
					205 59 207 
					200 207 18 
					19 202 209 
					202 208 209 
					202 58 208 
					209 208 61 
					58 210 208 
					210 211 208 
					210 60 211 
					208 211 61 
					58 201 210 
					201 212 210 
					201 18 212 
					210 212 60 
					61 211 214 
					211 213 214 
					211 60 213 
					214 213 8 
					6 215 206 
					215 216 206 
					215 62 216 
					206 216 59 
					62 217 216 
					217 218 216 
					217 63 218 
					216 218 59 
					62 219 217 
					219 220 217 
					219 20 220 
					217 220 63 
					59 218 207 
					218 221 207 
					218 63 221 
					207 221 18 
					20 222 220 
					222 223 220 
					222 64 223 
					220 223 63 
					64 224 223 
					224 225 223 
					224 65 225 
					223 225 63 
					64 226 224 
					226 227 224 
					226 21 227 
					224 227 65 
					63 225 221 
					225 228 221 
					225 65 228 
					221 228 18 
					20 229 222 
					229 230 222 
					229 66 230 
					222 230 64 
					66 231 230 
					231 232 230 
					231 67 232 
					230 232 64 
					66 233 231 
					233 234 231 
					233 7 234 
					231 234 67 
					64 232 226 
					232 235 226 
					232 67 235 
					226 235 21 
					18 228 212 
					228 236 212 
					228 65 236 
					212 236 60 
					65 237 236 
					237 238 236 
					237 68 238 
					236 238 60 
					65 227 237 
					227 239 237 
					227 21 239 
					237 239 68 
					60 238 213 
					238 240 213 
					238 68 240 
					213 240 8 
					6 164 215 
					164 241 215 
					164 49 241 
					215 241 62 
					49 242 241 
					242 243 241 
					242 69 243 
					241 243 62 
					49 169 242 
					169 244 242 
					169 17 244 
					242 244 69 
					62 243 219 
					243 245 219 
					243 69 245 
					219 245 20 
					17 246 244 
					246 247 244 
					246 70 247 
					244 247 69 
					70 248 247 
					248 249 247 
					248 71 249 
					247 249 69 
					70 250 248 
					250 251 248 
					250 22 251 
					248 251 71 
					69 249 245 
					249 252 245 
					249 71 252 
					245 252 20 
					17 183 246 
					183 253 246 
					183 54 253 
					246 253 70 
					54 254 253 
					254 255 253 
					254 72 255 
					253 255 70 
					54 188 254 
					188 256 254 
					188 2 256 
					254 256 72 
					70 255 250 
					255 257 250 
					255 72 257 
					250 257 22 
					20 252 229 
					252 258 229 
					252 71 258 
					229 258 66 
					71 259 258 
					259 260 258 
					259 73 260 
					258 260 66 
					71 251 259 
					251 261 259 
					251 22 261 
					259 261 73 
					66 260 233 
					260 262 233 
					260 73 262 
					233 262 7 
					8 240 264 
					240 263 264 
					240 68 263 
					264 263 75 
					68 265 263 
					265 266 263 
					265 74 266 
					263 266 75 
					68 239 265 
					239 267 265 
					239 21 267 
					265 267 74 
					75 266 269 
					266 268 269 
					266 74 268 
					269 268 24 
					21 270 267 
					270 271 267 
					270 76 271 
					267 271 74 
					76 272 271 
					272 273 271 
					272 77 273 
					271 273 74 
					76 274 272 
					274 275 272 
					274 23 275 
					272 275 77 
					74 273 268 
					273 276 268 
					273 77 276 
					268 276 24 
					21 235 270 
					235 277 270 
					235 67 277 
					270 277 76 
					67 278 277 
					278 279 277 
					278 78 279 
					277 279 76 
					67 234 278 
					234 280 278 
					234 7 280 
					278 280 78 
					76 279 274 
					279 281 274 
					279 78 281 
					274 281 23 
					24 276 283 
					276 282 283 
					276 77 282 
					283 282 80 
					77 284 282 
					284 285 282 
					284 79 285 
					282 285 80 
					77 275 284 
					275 286 284 
					275 23 286 
					284 286 79 
					80 285 288 
					285 287 288 
					285 79 287 
					288 287 3 
				</DataArray>
				<DataArray type="Int64" Name="offsets" format="ascii">
					3 
					6 
					9 
					12 
					15 
					18 
					21 
					24 
					27 
					30 
					33 
					36 
					39 
					42 
					45 
					48 
					51 
					54 
					57 
					60 
					63 
					66 
					69 
					72 
					75 
					78 
					81 
					84 
					87 
					90 
					93 
					96 
					99 
					102 
					105 
					108 
					111 
					114 
					117 
					120 
					123 
					126 
					129 
					132 
					135 
					138 
					141 
					144 
					147 
					150 
					153 
					156 
					159 
					162 
					165 
					168 
					171 
					174 
					177 
					180 
					183 
					186 
					189 
					192 
					195 
					198 
					201 
					204 
					207 
					210 
					213 
					216 
					219 
					222 
					225 
					228 
					231 
					234 
					237 
					240 
					243 
					246 
					249 
					252 
					255 
					258 
					261 
					264 
					267 
					270 
					273 
					276 
					279 
					282 
					285 
					288 
					291 
					294 
					297 
					300 
					303 
					306 
					309 
					312 
					315 
					318 
					321 
					324 
					327 
					330 
					333 
					336 
					339 
					342 
					345 
					348 
					351 
					354 
					357 
					360 
					363 
					366 
					369 
					372 
					375 
					378 
					381 
					384 
					387 
					390 
					393 
					396 
					399 
					402 
					405 
					408 
					411 
					414 
					417 
					420 
					423 
					426 
					429 
					432 
					435 
					438 
					441 
					444 
					447 
					450 
					453 
					456 
					459 
					462 
					465 
					468 
					471 
					474 
					477 
					480 
					483 
					486 
					489 
					492 
					495 
					498 
					501 
					504 
					507 
					510 
					513 
					516 
					519 
					522 
					525 
					528 
					531 
					534 
					537 
					540 
					543 
					546 
					549 
					552 
					555 
					558 
					561 
					564 
					567 
					570 
					573 
					576 
					579 
					582 
					585 
					588 
					591 
					594 
					597 
					600 
					603 
					606 
					609 
					612 
					615 
					618 
					621 
					624 
					627 
					630 
					633 
					636 
					639 
					642 
					645 
					648 
					651 
					654 
					657 
					660 
					663 
					666 
					669 
					672 
					675 
					678 
					681 
					684 
					687 
					690 
					693 
					696 
					699 
					702 
					705 
					708 
					711 
					714 
					717 
					720 
					723 
					726 
					729 
					732 
					735 
					738 
					741 
					744 
					747 
					750 
					753 
					756 
					759 
					762 
					765 
					768 
					771 
					774 
					777 
					780 
					783 
					786 
					789 
					792 
					795 
					798 
					801 
					804 
					807 
					810 
					813 
					816 
					819 
					822 
					825 
					828 
					831 
					834 
					837 
					840 
					843 
					846 
					849 
					852 
					855 
					858 
					861 
					864 
					867 
					870 
					873 
					876 
					879 
					882 
					885 
					888 
					891 
					894 
					897 
					900 
					903 
					906 
					909 
					912 
					915 