<?xml version="1.0" ?>
<VTKFile type="UnstructuredGrid" version="0.1">
	<UnstructuredGrid>
		<Piece NumberOfPoints="25" NumberOfCells="32">
			<PointData Scalars="Boundary flag">
				<DataArray Name="Boundary flag" type="Float64" format="ascii">
					1.000000
					1.000000
					1.000000
					1.000000
					1.000000
					1.000000
					0.000000
					1.000000
					1.000000
					1.000000
					0.000000
					0.000000
					0.000000
					0.000000
					1.000000
					1.000000
					1.000000
					0.000000
					0.000000
					1.000000
					0.000000
					0.000000
					1.000000
					1.000000
					1.000000
				</DataArray>
				<DataArray Name="Dirichlet BC" type="Float64" format="ascii">
					0.000000
					0.540302
					0.291927
					0.540302
					0.000000
					0.474160
					0.000000
					0.474160
					0.000000
					0.000000
					0.000000
					0.000000
					0.000000
					0.000000
					0.000000
					0.523506
					0.395333
					0.000000
					0.000000
					0.000000
					0.000000
					0.000000
					0.395333
					0.523506
					0.000000
				</DataArray>
			</PointData>
			<CellData />
			<Points>
				<DataArray type="Float64" Name="Array" NumberOfComponents="3" format="ascii">
					0.000000 0.000000 0.000000 
					1.000000 0.000000 0.000000 
					1.000000 1.000000 0.000000 
					0.000000 1.000000 0.000000 
					0.500000 0.000000 0.000000 
					1.000000 0.500000 0.000000 
					0.500000 0.500000 0.000000 
					0.500000 1.000000 0.000000 
					0.000000 0.500000 0.000000 
					0.250000 0.000000 0.000000 
					0.500000 0.250000 0.000000 
					0.250000 0.250000 0.000000 
					0.750000 0.250000 0.000000 
					0.750000 0.500000 0.000000 
					0.750000 0.000000 0.000000 
					1.000000 0.250000 0.000000 
					1.000000 0.750000 0.000000 
					0.750000 0.750000 0.000000 
					0.250000 0.500000 0.000000 
					0.000000 0.250000 0.000000 
					0.500000 0.750000 0.000000 
					0.250000 0.750000 0.000000 
					0.750000 1.000000 0.000000 
					0.250000 1.000000 0.000000 
					0.000000 0.750000 0.000000 
				</DataArray>
			</Points>
			<Cells>
				<DataArray type="Int64" Name="connectivity" format="ascii">
					0 9 11 
					9 10 11 
					9 4 10 
					11 10 6 
					4 12 10 
					12 13 10 
					12 5 13 
					10 13 6 
					4 14 12 
					14 15 12 
					14 1 15 
					12 15 5 
					6 13 17 
					13 16 17 
					13 5 16 
					17 16 2 
					0 11 19 
					11 18 19 
					11 6 18 
					19 18 8 
					6 20 18 
					20 21 18 
					20 7 21 
					18 21 8 
					6 17 20 
					17 22 20 
					17 2 22 
					20 22 7 
					8 21 24 
					21 23 24 
					21 7 23 
					24 23 3 
				</DataArray>
				<DataArray type="Int64" Name="offsets" format="ascii">
					3 
					6 
					9 
					12 
					15 
					18 
					21 
					24 
					27 
					30 
					33 
					36 
					39 
					42 
					45 
					48 
					51 
					54 
					57 
					60 
					63 
					66 
					69 
					72 
					75 
					78 
					81 
					84 
					87 
					90 
					93 
					96 
				</DataArray>
				<DataArray type="UInt8" Name="types" format="ascii">
					5 
					5 
					5 
					5 
					5 
					5 
					5 
					5 
					5 
					5 
					5 
					5 
					5 
					5 
					5 
					5 
					5 
					5 
					5 
					5 
					5 
					5 
					5 
					5 
					5 
					5 
					5 
					5 
					5 
					5 
					5 
					5 
				</DataArray>
			</Cells>
		</Piece>
	</UnstructuredGrid>
</VTKFile>
