<?xml version="1.0" ?>
<VTKFile type="UnstructuredGrid" version="0.1">
	<UnstructuredGrid>
		<Piece NumberOfPoints="9" NumberOfCells="8">
			<PointData Scalars="Boundary flag">
				<DataArray Name="Boundary flag" type="Float64" format="ascii">
					1.000000
					1.000000
					1.000000
					1.000000
					1.000000
					1.000000
					0.000000
					1.000000
					1.000000
				</DataArray>
				<DataArray Name="Dirichlet BC" type="Float64" format="ascii">
					0.000000
					0.540302
					0.291927
					0.540302
					0.000000
					0.474160
					0.000000
					0.474160
					0.000000
				</DataArray>
			</PointData>
			<CellData />
			<Points>
				<DataArray type="Float64" Name="Array" NumberOfComponents="3" format="ascii">
					0.000000 0.000000 0.000000 
					1.000000 0.000000 0.000000 
					1.000000 1.000000 0.000000 
					0.000000 1.000000 0.000000 
					0.500000 0.000000 0.000000 
					1.000000 0.500000 0.000000 
					0.500000 0.500000 0.000000 
					0.500000 1.000000 0.000000 
					0.000000 0.500000 0.000000 
				</DataArray>
			</Points>
			<Cells>
				<DataArray type="Int64" Name="connectivity" format="ascii">
					0 4 6 
					4 5 6 
					4 1 5 
					6 5 2 
					0 6 8 
					6 7 8 
					6 2 7 
					8 7 3 
				</DataArray>
				<DataArray type="Int64" Name="offsets" format="ascii">
					3 
					6 
					9 
					12 
					15 
					18 
					21 
					24 
				</DataArray>
				<DataArray type="UInt8" Name="types" format="ascii">
					5 
					5 
					5 
					5 
					5 
					5 
					5 
					5 
				</DataArray>
			</Cells>
		</Piece>
	</UnstructuredGrid>
</VTKFile>
